% Model:              busbar.mph
% Version:            COMSOL 6.2.0.290
% Date:               Mar 9 2026, 15:22
% Dimension:          3
% Nodes:              7360
% Expressions:        3
% Description:        Electric potential, Temperature, Displacement magnitude
% Length unit:        m
% x                       y                        z                        V (V)                    T (K)                    solid.disp (m)
0.09749999999999999       0                        0.1                      0.007558257066818403     323.579913754068         3.094530807416057E-5
0.09749832836307981       0                        0.0982785671072233       0.007558234797668596     323.5808013243837        2.9985853329530594E-5
0.09999999999999999       0                        0.1                      0.007558259299411097     323.5794030914156        3.0860123778585776E-5
0.0974921171408749        -0.0018986501956436864   0.1                      0.007558283534846806     323.5806450262981        3.052437162947182E-5
0.095                     0                        0.1                      0.007558256975853824     323.5794111068841        3.110710262975019E-5
0.09999999999999999       -0.002941176470588236    0.1                      0.007558309484111285     323.5805814286052        3.021728990479718E-5
0.09999999999999998       -0.00210419760703385     0.09814967236273618      0.007558266837772581     323.58122691108525       2.9344307542001227E-5
0.09749388674282988       -0.003362005375884012    0.09834487126816449      0.007558306682564239     323.5820721834408        2.9273175193820506E-5
0.09748777348565973       -0.0044036734126696895   0.1                      0.007558373288020475     323.5816288513984        3.000927323939314E-5
0.09499999999999999       -0.002941176470588236    0.1                      0.007558308358078677     323.5805656118194        3.046874142962204E-5
0.09999999999999999       0                        0.09705710435115979      0.007558203621623921     323.5812037297846        2.922013257677902E-5
0.09749999999999998       -0.0023203373390983722   0.096689742536329        0.007558222102593457     323.5829451215293        2.8564088761824072E-5
0.09499999999999999       -0.001915678654659292    0.09778310342798319      0.007558253098625322     323.5813976425106        2.9439817229787633E-5
0.09499999999999999       0                        0.09705710435115977      0.007558203982662814     323.5812080283586        2.9479993840966517E-5
0.1                       -0.004484213895290293    0.0979477748371079       0.007558358274698541     323.58226773169343       2.872391563956762E-5
0.09999999999999999       -0.0058823529411764705   0.1                      0.00755846227469191      323.5817266545345        2.964029986011685E-5
0.09999999999999998       -0.008823529411764707    0.1                      0.007558686409962088     323.58287596685165       2.9133137642141896E-5
0.09741975372343045       -0.0073529411764705795   0.1                      0.007558566493292479     323.5827749902701        2.9469432551208293E-5
0.09999999999999998       -0.007331447125788324    0.09766160094467517      0.007558544341940628     323.5836334865327        2.8011320830823873E-5
0.09749599384115433       0                        0.09553824624927834      0.007558130480585929     323.5831190927615        2.84744354859267E-5
0.09749999999999996       -0.005975272240532376    0.09747454649090927      0.0075584361738814465    323.5837062996791        2.8246555125828332E-5
0.09499999999999997       -0.0058823529411764705   0.1                      0.0075584597375431195    323.58173068249465       2.989530479160219E-5
0.09812499999999998       -0.006001634861457107    0.09537142244001486      0.00755836514602086      323.5856285407871        2.699843655222468E-5
0.09999999999999999       -0.002724996023537449    0.09559638164467488      0.007558180021300167     323.58365063929074       2.7766244664698903E-5
0.09499999999999999       -0.004619097355276436    0.09728749203714328      0.007558347047182488     323.5828026287676        2.8583901320388873E-5
0.09749999999999996       -0.0042567857055380775   0.09577657514264266      0.007558268981560489     323.5845648647437        2.7623566354623836E-5
0.09875                   -0.004522791830621992    0.09449467682558023      0.007558219680744288     323.58589147435947       2.6781169492612294E-5
0.1                       0                        0.09411420870231957      0.0075580297915410904    323.5842731130974        2.760329921480534E-5
0.09749999999999996       -0.002538299170543779    0.09407860379437603      0.00755808178974332      323.5857663000918        2.7056304369004298E-5
0.095                     -0.002119152911292424    0.09536995015781904      0.007558152902975983     323.58363350355114       2.8051282701881093E-5
0.09499999999999999       0                        0.09411420870231955      0.007558030941958091     323.58428029909686       2.7877222703444093E-5
0.09499999999999999       -0.007576840191835178    0.0974450805187294       0.007558558601779656     323.5838965936086        2.810983685270296E-5
0.09499999999999997       -0.008823529411764707    0.1                      0.007558685627692317     323.5828818904249        2.93927947205736E-5
0.09741975372343045       -0.010294117647058837    0.1                      0.007558820234633557     323.5839194227596        2.9000958248249145E-5
0.0974598768617152        -0.009270851095167223    0.09805761242995896      0.00755871755272969      323.5845531076482        2.8005238341217887E-5
0.0974197537234305        -0.01323529411764706     0.1                      0.007559105625759252     323.58491652107494       2.8611630796108907E-5
0.09499999999999999       -0.011764705882352943    0.1                      0.007558960041498733     323.58396253006913       2.8965614991280196E-5
0.09747993843085762       -0.011253072606407146    0.09773868307669473      0.007558906831252109     323.58557787725834       2.7511582858168727E-5
0.09999999999999999       -0.011764705882352943    0.1                      0.007558959921300413     323.5839559693009        2.8703145397692102E-5
0.1                       -0.010317765080326042    0.09746578102336384      0.007558810310401163     323.5848988364146        2.73958485670272E-5
0.1                       -0.006006604304655653    0.09529266015719534      0.0075583610453730295    323.5852493453213        2.6890017129225096E-5
0.09749999999999998       -0.0074804778922922185   0.09624816805444951      0.007558523107474449     323.58539628674197       2.7252505967612127E-5
0.09999999999999999       -0.008941811595719374    0.09517191974662761      0.007558633898918865     323.58663191222786       2.6266233368207848E-5
0.09749969545147409       0                        0.09260574591282614      0.0075578932806417845    323.58679115342824       2.6881268712279342E-5
0.09999999999999998       -0.004788797955705926    0.09321277850851785      0.007558147792324012     323.58739334535124       2.596028656438709E-5
0.09499999999999999       -0.006803347853994871    0.09536604569275864      0.007558435939821347     323.5855426661705        2.705337811041186E-5
0.0965625                 -0.005307101479839017    0.09468715131237002      0.007558282717311971     323.5860403380214        2.6840748894127474E-5
0.09750000000000002       -0.006782606074240287    0.09392835437606158      0.007558365970545092     323.58777413765364       2.6045392326149583E-5
0.09999999999999999       -0.0025901837127051187   0.09239617624950193      0.007557927262870563     323.58765859403803       2.601446579752712E-5
0.09749999999999999       -0.004017066261905808    0.09374139951254158      0.007558133290957073     323.5868292991108        2.652743324847871E-5
0.09499999999999999       -0.004612568098220887    0.09400288018472522      0.007558192558038277     323.58620942545446       2.672951730106278E-5
0.09999999999999999       0                        0.09117131305347934      0.007557730306646404     323.58851516904025       2.6013578039028206E-5
0.09749999999999999       -0.003777346818273539    0.09170622388244053      0.007557932574205175     323.5897071448578        2.544668306884123E-5
0.09749843186234818       -0.0018886734091367932   0.090683276802095        0.0075577070094718       323.5905507964514        2.5353045758166674E-5
0.095                     -0.0023516023175501086   0.09256082594407723      0.0075579368586919495    323.58731111031864       2.6451182925189303E-5
0.09499999999999999       0                        0.09117131305347932      0.0075577302184137414    323.5885165741693        2.6303022066458123E-5
0.09499999999999997       -0.010436564033306513    0.09730684443381034      0.007558821431615248     323.5850803544136        2.7556759838414114E-5
0.09499999999999999       -0.009127384435626735    0.09520368302554376      0.00755865603334084      323.5866431415711        2.6535202363380812E-5
0.09624999999999999       -0.008272145693938469    0.09379291910645877      0.007558512390846527     323.5883882519711        2.5762613608729056E-5
0.09749999999999993       -0.011188761013863832    0.0961152248599179       0.0075588895627904116    323.587001030909         2.6553009964133805E-5
0.09624999999999996       -0.010378276800057644    0.09490828768893424      0.007558784530784014     323.58778164102876       2.6047720474424932E-5
0.09499999999999997       -0.014705882352941175    0.1                      0.007559246724412695     323.58491176198913       2.8618304926826847E-5
0.09750000000000003       -0.013235294117647067    0.09741975372343048      0.007559108781376961     323.5864426402686        2.705249649743623E-5
0.09999999999999999       -0.014705882352941175    0.1                      0.007559246630552257     323.5849122245732        2.8352317236980296E-5
0.09745987686171524       -0.015808823529411774    0.09806481529257288      0.007559359823661152     323.586829563543         2.7156391073266956E-5
0.09741975372343048       -0.016176470588235292    0.1                      0.007559385244761194     323.585872992353         2.8302608528628862E-5
0.095                     -0.01323529411764706     0.0974197537234305       0.007559109401550659     323.58602678205773       2.7234954373414228E-5
0.1                       -0.01323529411764706     0.0974197537234305       0.007559109381732667     323.5860347123447        2.6958201138313956E-5
0.09999999999999998       -0.011940957994421129    0.09492360528602536      0.007558966430779048     323.58811437038594       2.5636266292120387E-5
0.09749999999999999       -0.010687043768727388    0.09429352575619476      0.007558809505945914     323.5888766930673        2.5551545287004687E-5
0.09749999999999999       -0.013914790231995475    0.09484744623977275      0.007559198387927987     323.5894193988614        2.541700320127315E-5
0.09999999999999999       -0.01053626429536895     0.09266042167358715      0.007558757196843235     323.5907333859428        2.4513682460815454E-5
0.09999999999999998       -0.007570851895473627    0.09253048919944888      0.007558368579255404     323.5895778446038        2.4985988830916504E-5
0.09875000000000002       -0.005505456406740537    0.09177049566236029      0.007558086318012744     323.5901550908456        2.5024320018313718E-5
0.09749999999999996       -0.0090474360695969      0.09261223513425747      0.007558553523530501     323.5906042334411        2.4848349466468262E-5
0.09874999999999999       -0.008091190816350942    0.09107603339618248      0.007558338045598288     323.5926004405473        2.4080604770557302E-5
0.09749686372469635       0                        0.08966032972174948      0.007557506603734724     323.59166291574996       2.5311436450145853E-5
0.09999999999999999       -0.004968389166612153    0.0909228217044115       0.007557943679470033     323.5910577941091        2.4630723238871583E-5
0.095                     -0.007558607843824872    0.09256404859492784      0.007558363644272566     323.58950976913536       2.530159120915557E-5
0.0975                    -0.005279976446256913    0.09281728912925104      0.007558155173341438     323.5886385817031        2.5727363938341902E-5
0.09999999999999999       -0.002498048814032633    0.08961818058315385      0.007557570800200864     323.59228535748423       2.4514971782499996E-5
0.09499999999999999       -0.004964509923841995    0.0910162715153791       0.007557956180547142     323.5908818330276        2.4983331114997743E-5
0.09750000000000002       -0.006502360466007729    0.09212828359613216      0.007558218355581872     323.59023661520126       2.507348787672145E-5
0.09999999999999999       0                        0.08822841740463912      0.007557252638318863     323.59395328260325       2.4456216378513286E-5
0.09749999999999999       -0.0038242489402243738   0.08886373477522473      0.007557559065662965     323.59481856215456       2.387041446337886E-5
0.09749902776782059       -0.0019121244701121645   0.08779011495898578      0.007557214054821378     323.59614185877393       2.379509466830338E-5
0.09500000000000001       -0.002580767374783469    0.0896998652290592       0.0075575886588264965    323.59216344758045       2.4842735561223815E-5
0.09499999999999999       0                        0.0882284174046391       0.0075572524159989414    323.593950769974         2.4761779778091963E-5
0.09499999999999999       -0.010381671287679056    0.09319952297469081      0.007558747851775473     323.5898659805979        2.5151832312973442E-5
0.09499999999999999       -0.011770870056063183    0.09479478575987871      0.007558944220678011     323.5881850361843        2.587248714897955E-5
0.09999999999999999       -0.017647058823529415    0.1                      0.007559505905158074     323.58571908875456       2.8085906985657185E-5
0.09749999999999999       -0.012388403993402715    0.09356526189439977      0.007559016154577633     323.590590067789         2.4856396717307775E-5
0.09999999999999999       -0.016176470588235296    0.09741975372343048      0.007559401079681381     323.58689858344366       2.6632616556201305E-5
0.09745987686171523       -0.018014705882352957    0.0980648152925729       0.0075595492356795285    323.58738574531355       2.6965410320831898E-5
0.09741975372343048       -0.01911764705882353     0.1                      0.007559610851348704     323.5865117654467        2.808004685035198E-5
0.09499999999999997       -0.017647058823529415    0.1                      0.007559505900396189     323.5857193165918        2.8353561271685546E-5
0.09745987686171521       -0.02095588235294117     0.09806481529257288      0.00755974076458969      323.58792586160445       2.6790467783882823E-5
0.09741975372343045       -0.022058823529411742    0.1                      0.007559763377109368     323.58693951072615       2.7946912964229975E-5
0.09999999999999999       -0.020588235294117647    0.1                      0.007559700333841818     323.5862779289876        2.7906294527921054E-5
0.09499999999999999       -0.020588235294117647    0.1                      0.007559700057542261     323.58627717002395       2.817755038665696E-5
0.09499999999999999       -0.016176470588235296    0.09741975372343048      0.0075594012821417434    323.58689408693465       2.6911401906023792E-5
0.0975                    -0.015441176470588236    0.09612963058514572      0.007559347639317891     323.58846104261374       2.6014921722229383E-5
0.09499999999999999       -0.014686126992813612    0.09468655727210676      0.007559295694665323     323.5893881226265        2.541911560724876E-5
0.1                       -0.01470588235294118     0.09483950744686095      0.007559292859486468     323.5892017165448        2.5219377715752725E-5
0.09749999999999999       -0.014650084349642541    0.093557323101488        0.0075593118400373695    323.591444523082         2.4547796350908818E-5
0.09999999999999999       -0.013305811280056042    0.09242377061119124      0.007559150165271964     323.5922182848713        2.3942191270373724E-5
0.0975                    -0.011694674305042055    0.09124010213201461      0.007558898372611919     323.5940970314786        2.358262351367783E-5
0.09999999999999999       -0.009513277273210226    0.09063029059474054      0.007558518933148817     323.59374086947804       2.3507812980876088E-5
0.09812499999999999       -0.009892932560696498    0.09115806776409854      0.007558607667380704     323.5934238852482        2.3810813751739035E-5
0.09999999999999998       -0.011827944914969855    0.09020955672572023      0.007558911108248329     323.5956425416885        2.2848111527040413E-5
0.1                       -0.007479719791708385    0.08964015411702635      0.007558122309501317     323.59459190765307       2.334716612827846E-5
0.09750000000000002       -0.006222114857775169    0.09032821281620274      0.0075580180702186014    323.59319703332864       2.4114512075047035E-5
0.09750000000000002       -0.008611529737228282    0.08962157759291609      0.007558305277815785     323.5956873358334        2.3203339684626413E-5
0.0975                    -0.011000944616681392    0.08891494236962943      0.007558711486319341     323.59844676805193       2.233353083784202E-5
0.095                     -0.010150114505324765    0.09080303613297298      0.007558635966372158     323.59375439223095       2.3796368044838144E-5
0.09749805553564116       0                        0.08671649514274685      0.007556917296523751     323.5976835961968        2.377768583592524E-5
0.09999999999999998       -0.004999600955176967    0.08820877926699357      0.0075575792887485485    323.59624706471055       2.3112465292293615E-5
0.09499999999999997       -0.007599104687694012    0.08955147345127484      0.007558132897947738     323.5948272435635        2.3582197730767214E-5
0.1                       -0.0025807673747834693   0.08675696958021901      0.007557026003192662     323.5981961119295        2.2953676909806272E-5
0.09749999999999999       -0.006386798478035381    0.08748172613883647      0.007557671651915789     323.59903367344464       2.248256073401726E-5
0.095                     -0.005161534749566938    0.08822841740463909      0.007557603862588107     323.5962826777759        2.340077891466923E-5
0.09999999999999998       0                        0.08528552175579888      0.007556521861601826     323.6005005558677        2.2938777212942516E-5
0.09749999999999999       -0.0038711510621752105   0.08602124566800895      0.007557001405617101     323.60102016620925       2.2320414703505416E-5
0.09749951388391032       -0.002246445922447843    0.08580209444518228      0.0075567712358678586    323.60074154609146       2.2652923390755036E-5
0.095                     -0.0025807673747834632   0.08675696958021897      0.0075570262408707805    323.5981928693535        2.3276238713886574E-5
0.09499999999999999       0                        0.08528552175579887      0.007556521903859485     323.6004997134694        2.3258556920018745E-5
0.095                     -0.012835849992384258    0.09220691850277418      0.007559084384745698     323.5923803025814        2.41822404365663E-5
0.09749999999999999       -0.01276012417783278     0.08976928791347968      0.007559080321015125     323.5975036778598        2.253896171263483E-5
0.095                     -0.012170610891079736    0.08955328445752947      0.0075589626439474715    323.5971797182743        2.271917901610365E-5
0.09999999999999998       -0.019117647058823527    0.0974197537234305       0.007559640703543512     323.587594619527         2.639611371987526E-5
0.09749999999999999       -0.01764705882352942     0.09612963058514573      0.007559560130245185     323.58902799982053       2.580694980401542E-5
0.09749999999999999       -0.01400554612214217     0.09105997700912409      0.007559280303583142     323.5954327463215        2.312670042900479E-5
0.09745987686171521       -0.023897058823529427    0.09806481529257288      0.007559836933225428     323.58818232092625       2.6710287018235567E-5
0.09741975372343045       -0.02500000000000003     0.1                      0.007559817698211942     323.5870825583583        2.790498442971922E-5
0.09999999999999998       -0.023529411764705885    0.1                      0.007559805834165201     323.5865683153616        2.7818516793255773E-5
0.09499999999999997       -0.023529411764705885    0.1                      0.0075598055103069045    323.5865677023798        2.8090224611455703E-5
0.09999999999999999       -0.022058823529411766    0.09741975372343048      0.007559801618495038     323.5880413161721        2.6254235494380588E-5
0.09999999999999999       -0.01764705882352943     0.09483950744686097      0.007559609517048764     323.59010262781163       2.491824454718114E-5
0.09749999999999999       -0.0198529411764706      0.09612963058514574      0.0075597357112321475    323.5895291897796        2.5650540483019556E-5
0.09499999999999999       -0.01911764705882353     0.0974197537234305       0.007559640832728791     323.5875933328238        2.6677786268525134E-5
0.09499999999999999       -0.022058823529411766    0.09741975372343048      0.007559801774822072     323.58804140852374       2.6536637034395037E-5
0.095                     -0.017647058823529422    0.09483950744686097      0.007559609873246983     323.59009926398625       2.5211517658333973E-5
0.09749999999999999       -0.01691176470588237     0.09354938430857622      0.007559583718844278     323.5922263980328        2.429375766480815E-5
0.09499999999999999       -0.015999442485445874    0.09220218560994928      0.007559538782203889     323.59361287948917       2.3773889353792963E-5
0.09999999999999999       -0.016176470588235316    0.09225926117029143      0.007559559692657943     323.59358028200273       2.3482985789761412E-5
0.09999999999999999       -0.014625499133301412    0.08988588822511373      0.007559430009348935     323.5975989719263        2.2231738264823997E-5
0.09749999999999999       -0.016379463150560818    0.09133056433857527      0.007559637745026317     323.59586688887515       2.299590216930208E-5
0.09999999999999999       -0.009831278342283045    0.08827660028172939      0.00755843774024095      323.5987100053229        2.2078983095919214E-5
0.0975                    -0.008807038522921312    0.08775243216928938      0.00755816690133468      323.5998191841281        2.2092542738866688E-5
0.1                       -0.012945867137018723    0.0869007639828325       0.007559136922706209     323.6037829201235        2.0699370173707824E-5
0.09749999999999999       -0.012032090159790362    0.08710510307098937      0.007558892381761479     323.6032563552599        2.1088125239667038E-5
0.09999999999999998       -0.00761206220650377     0.08673503487303381      0.007557790705289706     323.60097925316774       2.1670578555343693E-5
0.095                     -0.010222499276577968    0.08793381150685932      0.007558493675732606     323.5997145996688        2.2127469273115433E-5
0.09749880729702237       0                        0.08377353877074477      0.007556059491266462     323.60462622361996       2.2286286120134475E-5
0.09999999999999998       -0.00516153474956694     0.08528552175579888      0.007557023516161012     323.60301094965183       2.146987175790382E-5
0.0975                    -0.00900254730861434     0.08588328674566269      0.007558022960886681     323.6044792495816        2.0986352507756334E-5
0.09749999999999999       -0.0064193584574970385   0.08528003807900258      0.007557263426785588     323.6042968093777        2.125765042356543E-5
0.095                     -0.007718427657503119    0.08656083176154222      0.007557789448153394     323.60145665811154       2.1879123898360547E-5
0.09999999999999999       -0.002580767374783469    0.08381407393137878      0.007556215930328663     323.6052715498889        2.140752169768879E-5
0.09750000000000004       -0.002580767374783522    0.08381407393137874      0.007556191492626016     323.6057583991281        2.1521806992494404E-5
0.0975                    -0.004516342905871108    0.08344621197527374      0.007556385559084946     323.6078694965264        2.0773187080436198E-5
0.095                     -0.005161534749566938    0.08528552175579887      0.007557024104443825     323.60300969444245       2.1806491761953313E-5
0.09999999999999999       0                        0.08234262610695867      0.007555462903444153     323.60798289543715       2.146408614609754E-5
0.09500000000000001       -0.002580767374783469    0.08381407393137874      0.007556215984800042     323.6052709166264        2.1746432594975468E-5
0.09749954315947457       -0.0019355755310876137   0.08121868878981403      0.007555091618103862     323.61241344555225       2.0402279335857E-5
0.09499999999999999       0                        0.08234262610695864      0.007555462915932133     323.60798259330744       2.180237453757627E-5
0.09749999999999999       -0.011032891505756835    0.08558927525900599      0.007558555713097908     323.60653847343906       2.0392836644786793E-5
0.09749999999999999       -0.013825574050623507    0.08829847369494474      0.007559322866802138     323.60134052882216       2.1497603149433638E-5
0.095                     -0.014705280964228276    0.08969618340705698      0.007559454494743421     323.59804783423664       2.242543178655347E-5
0.09499999999999999       -0.013171960452086247    0.08687033706061996      0.0075592064880349715    323.6040420444748        2.097895879025012E-5
0.0975                    -0.01948529411764706     0.09419444587771861      0.007559802614040436     323.59192816744115       2.4481013000099435E-5
0.09999999999999999       -0.020588235294117633    0.09483950744686098      0.007559844881647296     323.590701635917         2.4717170399193274E-5
0.09750000000000002       -0.02279411764705879     0.09612963058514574      0.007559881275222361     323.5899042116241        2.552912106457276E-5
0.09999999999999999       -0.02647058823529412     0.1                      0.007559807095768853     323.58656504802315       2.782290368561112E-5
0.09999999999999999       -0.025                   0.09741975372343048      0.007559858326594143     323.5881895247454        2.620942008313437E-5
0.09741975372343047       -0.03382352941176472     0.1                      0.007559388655759654     323.5858527982797        2.832734333145623E-5
0.09745987686171521       -0.03272058823529416     0.09806481529257284      0.007559497701100991     323.5872347829834        2.7043760881405975E-5
0.09499999999999999       -0.03235294117647059     0.1                      0.007559511903226532     323.58573937708474       2.8373285099377433E-5
0.09741975372343045       -0.03088235294117646     0.1                      0.007559616899788985     323.5865174169866        2.8096644680076656E-5
0.09999999999999998       -0.03235294117647059     0.1                      0.007559512085850485     323.58573937205944       2.81075100576478E-5
0.09745987686171521       -0.03566176470588236     0.09806481529257288      0.007559224692744319     323.58641738079706       2.7340947087303665E-5
0.09741975372343048       -0.03676470588235294     0.1                      0.007559112813915687     323.58496597480246       2.8643830275257526E-5
0.09999999999999999       -0.03529411764705882     0.1                      0.007559254829793975     323.58494966794393       2.838231599870726E-5
0.09499999999999999       -0.03529411764705882     0.1                      0.007559254691128275     323.584949181851         2.8645463945481795E-5
0.09745987686171524       -0.02977941176470588     0.09806481529257284      0.007559705846415033     323.58780756526164       2.6838176696838377E-5
0.09999999999999999       -0.029411764705882356    0.1                      0.007559704580622724     323.58628042835153       2.7919719894089685E-5
0.09741975372343048       -0.027941176470588237    0.1                      0.00755976642291722      323.5869350772486        2.795515440587861E-5
0.09499999999999999       -0.029411764705882356    0.1                      0.0075597043204314795    323.5862799905529        2.818899707892733E-5
0.09745987686171521       -0.026838235294117652    0.09806481529257284      0.00755982434731803      323.5881377461213        2.672628337954925E-5
0.09499999999999999       -0.02647058823529412     0.1                      0.00755980678406959      323.58656450984995       2.8094103057140223E-5
0.09999999999999999       -0.027941176470588237    0.09741975372343048      0.007559803416520257     323.5880302662072        2.626258735165601E-5
0.09749999999999999       -0.02573529411764707     0.09612963058514572      0.007559911144326341     323.5899714177203        2.5507709889942858E-5
0.09499999999999999       -0.025                   0.09741975372343048      0.0075598584879391076    323.58818983427034       2.649181394160527E-5
0.09499999999999999       -0.027941176470588237    0.09741975372343048      0.007559803571952105     323.58803068523315       2.654409880116547E-5
0.1                       -0.023529411764705885    0.09483950744686097      0.007559974169109169     323.5910393784183        2.4617297914496852E-5
0.1                       -0.01911764705882353     0.09225926117029147      0.007559912397445258     323.59450512005776       2.3213610428873637E-5
0.09749999999999998       -0.02132352941176467     0.09354938430857618      0.007559981805110964     323.59321522549817       2.3981173696608267E-5
0.095                     -0.02058823529411764     0.09483950744686095      0.007559845110771222     323.59070192176074       2.5012029863391477E-5